Generated by pymatgen.io.lammps.data.LammpsData

192  atoms

  4  atom types

0.000000 12.977995  xlo xhi
0.000000 13.044509  ylo yhi
0.000000 13.040655  zlo zhi
0.039426 0.039960 0.006998  xy xz yz

Masses

1    6.94100
2  138.90547
3   91.22400
4   15.99940

Atoms

1    1 0.0000  3.898531  1.129266  5.449604
2    1 0.0000 10.427230  7.655207 11.970123
3    1 0.0000 12.994156  9.788325  1.727674
4    1 0.0000  6.505314  3.269525  8.247987
5    1 0.0000  3.242211  4.968560  0.023986
6    1 0.0000  9.770849 11.494365  6.544417
7    1 0.0000  4.905226 13.044206  3.327969
8    1 0.0000 11.394421  6.525580  9.848187
9    1 0.0000  1.640744  0.051675  9.799501
10   1 0.0000  8.129463  6.570416  3.279215
11   1 0.0000  8.856006  7.670324  1.064945
12   1 0.0000  5.587610  7.897181 10.619320
13   1 0.0000 10.737344  2.109043 12.521222
14   1 0.0000  5.224490  4.195715  0.983747
15   1 0.0000  4.185479  7.404750  8.495825
16   1 0.0000  2.285867  5.700320  2.159900
17   1 0.0000  7.164095  8.692651  4.406206
18   1 0.0000  5.825333  2.169974  2.230580
19   1 0.0000  0.868315 10.861992  8.728475
20   1 0.0000  0.974838  2.730808  5.376394
21   1 0.0000 10.941614  8.871250  0.943380
22   1 0.0000  5.633291 10.830587  4.426789
23   1 0.0000  2.325347  7.346981  4.654610
24   1 0.0000  4.257698  5.799993 10.960182
25   1 0.0000  1.997948 10.748425  0.957792
26   1 0.0000 11.740885  4.073350  5.467313
27   1 0.0000  0.921965  5.226658  4.155671
28   1 0.0000 12.038225 11.928015  2.459638
29   1 0.0000  7.484085  1.164601  9.073615
30   1 0.0000  2.641683 11.999220 11.973435
31   1 0.0000 10.581918  5.455227  7.616845
32   1 0.0000  7.716870 10.710921  5.627809
33   1 0.0000  2.031308  8.713660  7.344298
34   1 0.0000  2.367327  1.151609  7.585200
35   1 0.0000 12.036945  1.371337  4.098951
36   1 0.0000  4.248317  8.627818  6.000837
37   1 0.0000 11.753202 10.721627  7.504040
38   1 0.0000 10.634733  0.878985  1.975559
39   1 0.0000  8.814477 12.226132  8.680361
40   1 0.0000  0.675297  2.173887 10.926557
41   1 0.0000 12.354174  8.695889  8.750764
42   1 0.0000  7.317502  4.336049  2.208134
43   1 0.0000  7.503304  9.256698 11.896795
44   1 0.0000  4.452784  2.352475  7.463601
45   1 0.0000 12.122459  4.311867 10.947065
46   1 0.0000  8.814506  0.828306 11.174943
47   1 0.0000 10.746360 12.318729  4.439856
48   1 0.0000  8.487252  4.229596  7.478082
49   1 0.0000  5.291442 10.599066 11.987681
50   1 0.0000  7.450581 11.752504 10.676069
51   1 0.0000  5.549458  5.409192  8.979865
52   1 0.0000  0.994950  7.683120  2.553255
53   1 0.0000  9.091007  5.473478  5.453194
54   1 0.0000  4.092787 11.973924  1.096660
55   1 0.0000  1.227935  4.192094 12.148047
56   1 0.0000  8.480501  2.188041  0.824120
57   2 0.0000  6.515488  3.278954 11.409863
58   2 0.0000 13.004328  9.797646  4.889608
59   2 0.0000  6.522016  9.803338  8.235427
60   2 0.0000 12.971167  3.277566  1.715101
61   2 0.0000  3.265341 11.413845  6.569760
62   2 0.0000  9.714779  4.888130  0.049518
63   2 0.0000  9.770910  8.265882  6.581444
64   2 0.0000  3.242213  1.740003  0.061082
65   2 0.0000 11.254929  6.540156  3.295454
66   2 0.0000  4.766062  0.021467  9.815880
67   2 0.0000  8.252279  6.560549  9.806608
68   2 0.0000  1.723580  0.034773  3.286231
69   2 0.0000 12.979223  3.294550  8.166126
70   2 0.0000  6.489896  9.813369  1.645819
71   2 0.0000 13.035476  9.830795 11.540228
72   2 0.0000  6.506793  3.304962  5.019782
73   2 0.0000  3.251406  8.132339  0.032493
74   2 0.0000  9.740610  1.613517  6.552713
75   2 0.0000  9.746201 11.478410  0.035677
76   2 0.0000  3.257326  4.959717  6.555950
77   2 0.0000  7.991436  0.017890  3.296132
78   2 0.0000  1.542058  6.543642  9.816391
79   2 0.0000 11.476618  0.010777  9.833545
80   2 0.0000  4.987283  6.529426  3.313262
81   3 0.0000  9.768483  3.217537  9.842006
82   3 0.0000  9.720801  9.835593  3.329751
83   3 0.0000  3.252380  9.783629  9.838350
84   3 0.0000  3.301533  3.279431  3.330346
85   3 0.0000  6.543520  6.569927 13.011866
86   3 0.0000  6.457749  0.053505  6.590937
87   3 0.0000 12.965498  6.564150  6.535877
88   3 0.0000  0.035863  0.049742  0.037674
89   3 0.0000  3.279343  9.736202  3.321671
90   3 0.0000  3.232117  3.316859  9.850014
91   3 0.0000  9.701575  3.257899  3.318046
92   3 0.0000  9.830250  9.805060  9.850530
93   3 0.0000 12.992844  0.044118  6.491445
94   3 0.0000 12.946220  6.572326  0.070644
95   3 0.0000  6.436823  0.038470  0.015704
96   3 0.0000  6.564620  6.575463  6.558126
97   4 0.0000  7.857092  3.992024  9.389622
98   4 0.0000 11.632884  9.068038  2.841810
99   4 0.0000  5.169694 10.556888 10.129631
100  4 0.0000  1.370689  2.504857  3.603101
101  4 0.0000  3.915292  9.289162  7.852115
102  4 0.0000  9.035572  2.768695 11.795614
103  4 0.0000 10.508275 10.334211  5.224902
104  4 0.0000  2.611973  3.810274  1.390146
105  4 0.0000  9.291104  7.912262  4.069113
106  4 0.0000  2.764548 11.690668  9.059089
107  4 0.0000 10.256766  5.140453 10.608960
108  4 0.0000  3.757488  1.372081  2.591022
109  4 0.0000 11.739488  2.531820 10.246621
110  4 0.0000  7.706364 10.501388  3.735008
111  4 0.0000  1.308252  9.048222  9.337358
112  4 0.0000  5.307829  3.994979  2.882898
113  4 0.0000  2.534199 10.114256 11.798220
114  4 0.0000 10.401771  3.592904  7.870437
115  4 0.0000  9.064252  9.497994  1.360221
116  4 0.0000  4.057801  2.989789  5.303718
117  4 0.0000 10.130568 11.820751  2.642727
118  4 0.0000  3.668191  7.800565 10.499413
119  4 0.0000  9.379379  1.231142  9.195739
120  4 0.0000  2.851722  5.250672  4.007392
121  4 0.0000  4.592841  6.110609  0.746701
122  4 0.0000  8.409274 12.609241  5.824722
123  4 0.0000  1.905703  6.855601  7.307445
124  4 0.0000 11.122579  0.330713 12.305413
125  4 0.0000  0.649262  4.577904  6.040992
126  4 0.0000  5.810445  8.523580 12.561946
127  4 0.0000  7.243782  1.949651  7.088836
128  4 0.0000 12.364351 11.154638  0.569387
129  4 0.0000  6.027799  0.792350  4.667266
130  4 0.0000 12.478833  5.784337  8.443237
131  4 0.0000  6.991610  7.332039  1.893139
132  4 0.0000  0.570584 12.361226 11.171202
133  4 0.0000  8.515488  6.971696 12.326592
134  4 0.0000  4.442509  0.458768  7.256555
135  4 0.0000 11.020639  6.062702  5.801473
136  4 0.0000  2.081958 12.646900  0.754328
137  4 0.0000 12.247686  8.523556  6.864982
138  4 0.0000  7.136423  4.591380  0.347052
139  4 0.0000  5.840930 11.127780  6.254055
140  4 0.0000  0.832691  2.030016 12.787042
141  4 0.0000  6.906608 12.411745  8.576947
142  4 0.0000  0.405101  7.224426  4.552973
143  4 0.0000  6.153423  5.923155 11.025793
144  4 0.0000 12.563963  0.729638  2.007850
145  4 0.0000  1.367910 10.510766  2.869232
146  4 0.0000  5.144133  2.549204  9.362210
147  4 0.0000 11.618987  4.031033  3.609361
148  4 0.0000  7.899404  9.030528 10.123515
149  4 0.0000 10.364614  2.763340  1.331783
150  4 0.0000  2.546378  9.287500  5.275323
151  4 0.0000  4.019561  3.815431 11.745211
152  4 0.0000  9.140660 10.336152  7.910561
153  4 0.0000  2.802328  1.393447 10.589411
154  4 0.0000  9.213816  5.164906  2.538809
155  4 0.0000  3.767344 11.659118  4.088784
156  4 0.0000 10.286294  7.897787  9.111257
157  4 0.0000  5.250162  9.050613  3.726420
158  4 0.0000  1.217615  3.982535 10.255236
159  4 0.0000  7.757433  2.522480  2.817092
160  4 0.0000 11.836585 10.520777  9.403178
161  4 0.0000  8.983395  3.588567  5.277960
162  4 0.0000  3.912512 10.111676  1.350265
163  4 0.0000  2.575505  2.979211  7.880553
164  4 0.0000 10.586497  9.515494 11.823977
165  4 0.0000  3.641802  5.302017  9.163052
166  4 0.0000 10.117487  1.274866  3.979076
167  4 0.0000  2.890310  7.750031  2.675388
168  4 0.0000  9.380275 11.776505 10.527852
169  4 0.0000 11.121486 12.636556  7.267034
170  4 0.0000  1.920689  6.090333 12.345068
171  4 0.0000  8.354971  0.329870  0.787082
172  4 0.0000  4.633425  6.849534  5.785059
173  4 0.0000  7.177968 11.103712 12.561178
174  4 0.0000 12.259783  1.997844  6.041638
175  4 0.0000  0.754519  8.468338  0.568434
176  4 0.0000  5.875455  4.635936  7.089712
177  4 0.0000 12.556507  7.318250 11.187496
178  4 0.0000  5.989566 12.302996  1.923026
179  4 0.0000  0.503003  0.813376  8.413376
180  4 0.0000  7.019891  5.835423  4.650717
181  4 0.0000  1.986920  0.445955  5.806345
182  4 0.0000 10.931196  6.977561  0.736183
183  4 0.0000  4.571250 12.588487 12.321750
184  4 0.0000  8.571185  6.128162  7.274629
185  4 0.0000  5.719031  1.997833  0.344748
186  4 0.0000  0.687327 11.117116  6.867413
187  4 0.0000 12.330292  4.609159 12.774457
188  4 0.0000  7.321452  8.548723  6.266788
189  4 0.0000  0.377917  5.885900  2.056486
190  4 0.0000  6.894368  0.705656 11.073266
191  4 0.0000 12.642232 12.441943  4.505627
192  4 0.0000  6.114680  7.255355  8.528230

